 Q-Chem 6.0 (devel), Q-Chem, Inc., Pleasanton, CA (2022)
 Q-Chem 6.0.0 for Mac (Intel) OS X

User input:
--------------------------------------------------------------
$molecule
0  1
H       2.1195528784     0.5137422595    -0.3319342228
C       1.4473683869     1.3590099487    -0.2933475878
C       1.9520728354     2.7134108539    -0.2005020112
O       0.1958898087     1.0825185696    -0.3348212670
C       3.2454834797     3.0352628973    -0.1554278077
H       1.2007132242     3.4800122584    -0.1682859681
H       4.0246737381     2.2977268163    -0.1853180390
H       3.5522735487     4.0594282963    -0.0866880965
$end

$rem
  jobtype               freq
  method                hf
  basis                 6-31G
  cis_state_deriv       1
  cis_singlets          true
  cis_triplets          false
  cis_n_roots           10
  sym_ignore            true
  save_vibronic_params  true
$end

--------------------------------------------------------------

   14    -190.6708851306      4.43e-09  Convergence criterion met
 Total energy in the final basis set =     -190.6708851306

               CIS Excitation Energies
 ---------------------------------------------------

 Excited state   1: excitation energy (eV) =    4.0446
 Total energy for state  1:                  -190.52224862 au
    Multiplicity: Singlet
    Trans. Mom.:  0.0008 X   0.0025 Y  -0.0406 Z
    Strength   :     0.0001642338
    D(   14) --> V(    1) amplitude =  0.8991
    D(   14) --> V(    2) amplitude =  0.3941

 Excited state   2: excitation energy (eV) =    7.0768
 Total energy for state  2:                  -190.41081663 au
    Multiplicity: Singlet
    Trans. Mom.: -1.9750 X  -0.9759 Y  -0.0985 Z
    Strength   :     0.8430686096
    D(   15) --> V(    1) amplitude =  0.9646

 Excited state   3: excitation energy (eV) =    8.1403
 Total energy for state  3:                  -190.37173506 au
    Multiplicity: Singlet
    Trans. Mom.:  0.0028 X   0.0088 Y  -0.1445 Z
    Strength   :     0.0041788741
    D(   10) --> V(    2) amplitude = -0.2183
    D(   11) --> V(    1) amplitude =  0.8910
    D(   11) --> V(    2) amplitude =  0.3024

 Excited state   4: excitation energy (eV) =    8.8520
 Total energy for state  4:                  -190.34557926 au
    Multiplicity: Singlet
    Trans. Mom.: -0.0006 X  -0.0020 Y   0.0327 Z
    Strength   :     0.0002334145
    D(   12) --> V(    1) amplitude =  0.9115

 Excited state   5: excitation energy (eV) =    9.4880
 Total energy for state  5:                  -190.32220935 au
    Multiplicity: Singlet
    Trans. Mom.: -0.0618 X   0.0330 Y   0.0008 Z
    Strength   :     0.0011395897
    D(   13) --> V(    1) amplitude =  0.8918
    D(   15) --> V(    2) amplitude =  0.2777

 Excited state   6: excitation energy (eV) =   10.1900
 Total energy for state  6:                  -190.29640833 au
    Multiplicity: Singlet
    Trans. Mom.: -0.0000 X  -0.0000 Y   0.0005 Z
    Strength   :     0.0000000686
    D(    9) --> V(    1) amplitude = -0.4295
    D(   10) --> V(    1) amplitude = -0.5706
    D(   11) --> V(    2) amplitude =  0.3572
    D(   14) --> V(    2) amplitude =  0.4399

 Excited state   7: excitation energy (eV) =   10.6074
 Total energy for state  7:                  -190.28107194 au
    Multiplicity: Singlet
    Trans. Mom.: -0.0012 X  -0.0037 Y   0.0603 Z
    Strength   :     0.0009499533
    D(   15) --> V(    3) amplitude =  0.7450
    D(   15) --> V(    4) amplitude = -0.5817

 Excited state   8: excitation energy (eV) =   10.7268
 Total energy for state  8:                  -190.27668100 au
    Multiplicity: Singlet
    Trans. Mom.:  0.5578 X  -0.1191 Y   0.0036 Z
    Strength   :     0.0855158723
    D(   13) --> V(    1) amplitude = -0.2913
    D(   15) --> V(    2) amplitude =  0.9324

 Excited state   9: excitation energy (eV) =   11.1172
 Total energy for state  9:                  -190.26233554 au
    Multiplicity: Singlet
    Trans. Mom.: -0.0010 X  -0.0031 Y   0.0509 Z
    Strength   :     0.0007091028
    D(   15) --> V(    3) amplitude =  0.6008
    D(   15) --> V(    4) amplitude =  0.6299
    D(   15) --> V(    5) amplitude =  0.3669

 Excited state  10: excitation energy (eV) =   11.3158
 Total energy for state 10:                  -190.25503785 au
    Multiplicity: Singlet
    Trans. Mom.: -0.0019 X  -0.0059 Y   0.0970 Z
    Strength   :     0.0026203618
    D(    9) --> V(    1) amplitude = -0.7203
    D(   10) --> V(    1) amplitude =  0.4021
    D(   12) --> V(    2) amplitude =  0.3893

 ---------------------------------------------------

 Frequency:       182.27                 341.59                 520.19
 Force Cnst:      0.0757                 0.2228                 0.1933
 Red. Mass:       3.8671                 3.2402                 1.2124
 IR Intens:        0.889                  9.401                 82.851
 Frequency:       543.21                 705.94                1000.44
 Force Cnst:      0.7374                 0.4534                 1.2329
 Red. Mass:       4.2414                 1.5440                 2.0907
 IR Intens:        3.510                  0.022                  5.964
 Frequency:      1051.81                1132.31                1228.20
 Force Cnst:      0.8575                 0.8845                 1.6020
 Red. Mass:       1.3156                 1.1709                 1.8025
 IR Intens:      107.754                 17.027                 30.381
 Frequency:      1326.70                1449.63                1578.06
 Force Cnst:      1.2294                 1.6125                 2.3278
 Red. Mass:       1.1855                 1.3024                 1.5866
 IR Intens:        5.310                  0.570                  6.816
 Frequency:      1629.00                1796.95                3261.27
 Force Cnst:      5.6271                 6.5981                 6.7592
 Red. Mass:       3.5991                 3.4681                 1.0786
 IR Intens:        0.200                 52.202                 17.140
 Frequency:      3338.33                3365.42                3430.85
 Force Cnst:      6.9604                 7.3038                 7.7336
 Red. Mass:       1.0600                 1.0945                 1.1151
 IR Intens:        5.420                  2.326                 14.572
 Total job time:  2.01s(wall), 1.99s(cpu)
        *  Thank you very much for using Q-Chem.  Have a nice day.  *

User input: 2 of 2

                  Welcome to Q-Chem
     A Quantum Leap Into The Future Of Chemistry

 Q-Chem 6.0 (devel), Q-Chem, Inc., Pleasanton, CA (2022)

 E. Epifanovsky,  A. T. B. Gilbert,  Xintian Feng,  Joonho Lee,  Yuezhi Mao,
 N. Mardirossian,  P. Pokhilko,  A. White,  M. Wormit,  M. P. Coons,
 A. L. Dempwolff,  Zhengting Gan,  D. Hait,  P. R. Horn,  L. D. Jacobson,
 I. Kaliman,  J. Kussmann,  A. W. Lange,  Ka Un Lao,  D. S. Levine,  Jie Liu,
 S. C. McKenzie,  A. F. Morrison,  K. Nanda,  F. Plasser,  D. R. Rehn,
 M. L. Vidal,  Zhi-Qiang You,  Ying Zhu,  B. Alam,  B. Albrecht,
 A. Aldossary,  E. Alguire,  J. H. Andersen,  V. Athavale,  D. Barton,
 K. Begam,  A. Behn,  N. Bellonzi,  Y. A. Bernard,  E. J. Berquist,
 H. Burton,  A. Carreras,  K. Carter-Fenk,  Romit Chakraborty,
 Chandrima Chakravarty,  Junhan Chen,  A. D. Chien,  K. D. Closser,
 V. Cofer-Shabica,  L. Cunha,  S. Dasgupta,  Jia Deng,  M. de Wergifosse,
 M. Diedenhofen,  Hainam Do,  S. Ehlert,  Po-Tung Fang,  S. Fatehi,
 Qingguo Feng,  T. Friedhoff,  B. Ganoe,  J. Gayvert,  Qinghui Ge,
 G. Gidofalvi,  M. Goldey,  J. Gomes,  C. Gonzalez-Espinoza,  S. Gulania,
 A. Gunina,  J. A. Gyamfi,  M. W. D. Hanson-Heine,  P. H. P. Harbach,
 A. W. Hauser,  M. F. Herbst,  M. Hernandez Vera,  M. Hodecker,
 Z. C. Holden,  S. Houck,  Xunkun Huang,  Kerwin Hui,  B. C. Huynh,
 K. Ikeda,  M. Ivanov,  Hyunjun Ji,  Zuxin Jin,  Hanjie Jiang,  B. Kaduk,
 S. Kaehler,  R. Kang,  K. Khistyaev,  Jaehoon Kim,  Yongbin Kim,
 P. Klunzinger,  Z. Koczor-Benda,  Joong Hoon Koh,  D. Kosenkov,
 Saikiran Kotaru,  L. Koulias,  T. Kowalczyk,  C. M. Krauter,  K. Kue,
 A. Kunitsa,  T. Kus,  A. Landau,  K. V. Lawler,  D. Lefrancois,  S. Lehtola,
 Rain Li,  Shaozhi Li,  Yi-Pei Li,  Jiashu Liang,  M. Liebenthal,
 Hung-Hsuan Lin,  You-Sheng Lin,  Fenglai Liu,  Kuan-Yu Liu,
 M. Loipersberger,  A. Luenser,  C. Malbon,  A. Manjanath,  P. Manohar,
 E. Mansoor,  S. F. Manzer,  Shan-Ping Mao,  A. V. Marenich,  T. Markovich,
 S. Mason,  F. Matz,  S. A. Maurer,  P. F. McLaughlin,  M. F. S. J. Menger,
 J.-M. Mewes,  S. A. Mewes,  P. Morgante,  Mohammad Mostafanejad,
 J. W. Mullinax,  K. J. Oosterbaan,  G. Paran,  V. Parravicini,
 Alexander C. Paul,  Suranjan K. Paul,  F. Pavosevic,  Zheng Pei,  S. Prager,
 E. I. Proynov,  E. Ramos,  B. Rana,  A. E. Rask,  A. Rettig,  R. M. Richard,
 F. Rob,  E. Rossomme,  T. Scheele,  M. Scheurer,  M. Schneider,
 P. E. Schneider,  N. Sergueev,  S. M. Sharada,  Hengyuan Shen,
 W. Skomorowski,  D. W. Small,  C. J. Stein,  Yingli Su,  Yu-Chuan Su,
 E. J. Sundstrom,  Zhen Tao,  J. Thirman,  Hung-Yi Tsai,  T. Tsuchimochi,
 N. M. Tubman,  C. Utku,  S. P. Veccham,  O. Vydrov,  J. Wenzel,
 Jonathan Wong,  J. Witte,  A. Yamada,  Chou-Hsun Yang,  Kun Yao,
 S. Yeganeh,  S. R. Yost,  A. Zech,  F. Zeller,  Igor Ying Zhang,
 Xing Zhang,  Yu Zhang,  D. Zuev,  A. Aspuru-Guzik,  A. T. Bell,
 N. A. Besley,  K. B. Bravaya,  B. R. Brooks,  D. Casanova,  Jeng-Da Chai,
 Hsing-Ta Chen,  S. Coriani,  C. J. Cramer,  A. E. DePrince, III,
 R. A. DiStasio Jr.,  A. Dreuw,  B. D. Dunietz,  T. R. Furlani,
 W. A. Goddard III,  S. Grimme,  S. Hammes-Schiffer,  T. Head-Gordon,
 W. J. Hehre,  Chao-Ping Hsu,  T.-C. Jagau,  Yousung Jung,  A. Klamt,
 Jing Kong,  D. S. Lambrecht,  Xiangyuan Li,  WanZhen Liang,  N. J. Mayhall,
 C. W. McCurdy,  J. B. Neaton,  T. Neudecker,  C. Ochsenfeld,
 J. A. Parkhill,  R. Peverati,  V. A. Rassolov,  Haisheng Ren,  Yihan Shao,
 L. V. Slipchenko,  R. P. Steele,  J. E. Subotnik,  A. J. W. Thom,
 A. Tkatchenko,  D. G. Truhlar,  T. Van Voorhis,  Fan Wang,
 T. A. Wesolowski,  K. B. Whaley,  H. L. Woodcock III,  P. M. Zimmerman,
 S. Faraji,  P. M. W. Gill,  M. Head-Gordon,  J. M. Herbert,  A. I. Krylov

 Contributors to earlier versions of Q-Chem not listed above:
 R. D. Adamson,  B. Austin,  R. Baer,  J. Baker,  G. J. O. Beran,
 K. Brandhorst,  S. T. Brown,  E. F. C. Byrd,  Arup K. Chakraborty,
 G. K. L. Chan,  Chun-Min Chang,  Yunqing Chen,  C.-L. Cheng,
 Siu Hung Chien,  D. M. Chipman,  D. L. Crittenden,  H. Dachsel,
 R. J. Doerksen,  A. D. Dutoi,  R. G. Edgar,  J. Fosso-Tande,
 L. Fusti-Molnar,  D. Ghosh,  A. Ghysels,  A. Golubeva-Zadorozhnaya,
 J. Gonthier,  M. S. Gordon,  S. R. Gwaltney,  G. Hawkins,  J. E. Herr,
 A. Heyden,  S. Hirata,  E. G. Hohenstein,  G. Kedziora,  F. J. Keil,
 C. Kelley,  Jihan Kim,  R. A. King,  R. Z. Khaliullin,  P. P. Korambath,
 W. Kurlancheek,  A. Laurent,  A. M. Lee,  M. S. Lee,  S. V. Levchenko,
 Ching Yeh Lin,  D. Liotard,  E. Livshits,  R. C. Lochan,  I. Lotan,
 L. A. Martinez-Martinez,  P. E. Maslen,  N. Nair,  D. P. O'Neill,
 D. Neuhauser,  E. Neuscamman,  C. M. Oana,  R. Olivares-Amaya,  R. Olson,
 T. M. Perrine,  B. Peters,  P. A. Pieniazek,  A. Prociuk,  Y. M. Rhee,
 J. Ritchie,  M. A. Rohrdanz,  E. Rosta,  N. J. Russ,  H. F. Schaefer III,
 M. W. Schmidt,  N. E. Schultz,  S. Sharma,  N. Shenvi,  C. D. Sherrill,
 A. C. Simmonett,  A. Sodt,  T. Stein,  D. Stuck,  K. S. Thanthiriwatte,
 V. Vanovschi,  L. Vogt,  Tao Wang,  A. Warshel,  M. A. Watson,
 C. F. Williams,  Q. Wu,  X. Xu,  Jun Yang,  W. Zhang,  Yan Zhao

   Please cite Q-Chem as follows:
  "Software for the frontiers of quantum chemistry:
   An overview of developments in the Q-Chem 5 package"
   J. Chem. Phys. 155, 084801 (2021)
   https://doi.org/10.1063/5.0055522 (open access)

 Q-Chem 6.0.0 for Mac (Intel) OS X

 Parts of Q-Chem use Armadillo 9.900.5 (Nocturnal Misbehaviour).
 http://arma.sourceforge.net/

 Q-Chem begins on Wed Nov 30 18:29:24 2022

 Host: Andrews-MacBook-Pro.local
0

     Scratch files written to /Users/agilbert/Development/QChem/scratch/qchem2241//
 Processing $rem in /Users/agilbert/Development/QChem/tkt2864/config/preferences:
 Processing $rem in /Users/agilbert/.qchemrc:

 Checking the input file for inconsistencies... 	...done.

--------------------------------------------------------------
User input:
--------------------------------------------------------------

$molecule
0 1
H       2.1887220025     0.5822572084    -0.3263818343
C       1.4324396944     1.3609255057    -0.2935230057
C       1.9229294089     2.7396586420    -0.1994659959
O       0.2524823254     1.0686412929    -0.3345613296
C       3.2188155499     3.0165609079    -0.1570961185
H       1.1751512346     3.5089725422    -0.1670136583
H       3.9637412628     2.2419565015    -0.1899284285
H       3.5837464216     4.0221392994    -0.0883546292
$end

$rem
  jobtype           freq
  method            hf
  basis             6-31G
  sym_ignore        true
  vibronic_spectra  1
$end

$vibronic
  model 2
  freq_range 10000.0 50000.0 5.0
$end
--------------------------------------------------------------

             Standard Nuclear Orientation (Angstroms)
    I     Atom           X                Y                Z
 ----------------------------------------------------------------
    1      H       2.1887220025     0.5822572084    -0.3263818343
    2      C       1.4324396944     1.3609255057    -0.2935230057
    3      C       1.9229294089     2.7396586420    -0.1994659959
    4      O       0.2524823254     1.0686412929    -0.3345613296
    5      C       3.2188155499     3.0165609079    -0.1570961185
    6      H       1.1751512346     3.5089725422    -0.1670136583
    7      H       3.9637412628     2.2419565015    -0.1899284285
    8      H       3.5837464216     4.0221392994    -0.0883546292
 ----------------------------------------------------------------

   14    -190.6777634939      5.25e-09  Convergence criterion met
 Total energy in the final basis set =     -190.6777634939

                    Orbital Energies (a.u.)
 --------------------------------------------------------------

 Alpha MOs
 -- Occupied --
-20.5728 -11.3459 -11.2714 -11.2594  -1.4118  -1.0976  -0.8927  -0.7962
 -0.6790  -0.6697  -0.6021  -0.5580  -0.5421  -0.4299  -0.3975

          Ground-State Mulliken Net Atomic Charges

     Atom                 Charge (a.u.)
  ----------------------------------------
      1 H                     0.166045
      2 C                     0.301559
      3 C                    -0.215095
      4 O                    -0.521568
      5 C                    -0.335094
      6 H                     0.224787
      7 H                     0.185460
      8 H                     0.193907
  ----------------------------------------
  Sum of atomic charges =     0.000000

                    Cartesian Multipole Moments
 -----------------------------------------------------------------
    Charge (ESU x 10^10)
                -0.0000
    Dipole Moment (Debye)
         X       3.6686      Y       1.5086      Z       0.1643
       Tot       3.9701
    Quadrupole Moments (Debye-Ang)
        XX     -14.1696     XY       7.1042     YY     -16.7468
        XZ      -0.8372     YZ       0.0368     ZZ     -25.1295

 Frequency:       183.69                 355.46                 621.60
 Force Cnst:      0.0656                 0.2050                 1.1361
 Red. Mass:       3.2996                 2.7531                 4.9905
 IR Intens:        9.922                 14.643                 11.574
 Frequency:       676.87                1020.91                1133.01
 Force Cnst:      0.3224                 1.0250                 1.2262
 Red. Mass:       1.1945                 1.6692                 1.6212
 IR Intens:       16.847                 27.607                 22.183
 Frequency:      1140.99                1183.98                1296.96
 Force Cnst:      0.8253                 1.2452                 2.0170
 Red. Mass:       1.0760                 1.5077                 2.0352
 IR Intens:       59.624                 11.811                 38.245
 Frequency:      1438.29                1534.32                1606.38
 Force Cnst:      1.7186                 1.6370                 1.8891
 Red. Mass:       1.4100                 1.1803                 1.2426
 IR Intens:        1.782                 12.246                  4.645
 Frequency:      1834.63                1914.70                3205.49
 Force Cnst:      8.5321                14.5753                 6.5900
 Red. Mass:       4.3024                 6.7479                 1.0885
 IR Intens:       29.729                242.732                 66.655
 Frequency:      3329.15                3378.06                3425.29
 Force Cnst:      6.9485                 7.3681                 7.7001
 Red. Mass:       1.0641                 1.0959                 1.1139
 IR Intens:        7.246                  1.202                 10.847

 STANDARD THERMODYNAMIC QUANTITIES AT   298.15 K  AND     1.00 ATM

   This Molecule has  0 Imaginary Frequencies
   Zero point vibrational energy:       41.858 kcal/mol

   Atom    1 Element H  Has Mass    1.00783
   Atom    2 Element C  Has Mass   12.00000
   Atom    3 Element C  Has Mass   12.00000
   Atom    4 Element O  Has Mass   15.99491
   Atom    5 Element C  Has Mass   12.00000
   Atom    6 Element H  Has Mass    1.00783
   Atom    7 Element H  Has Mass    1.00783
   Atom    8 Element H  Has Mass    1.00783
   Molecular Mass:    56.026230 amu
   Principal axes and moments of inertia in amu*Bohr^2:
                             1           2           3
    Eigenvalues --       36.82909   386.06205   422.89114
          X               0.79346    -0.60830    -0.01957
          Y               0.60633     0.79286    -0.06112
          Z               0.05269     0.03663     0.99794
   Rotational Symmetry Number is   1
   The Molecule is an Asymmetric Top
   Translational Enthalpy:        0.889 kcal/mol
   Rotational Enthalpy:           0.889 kcal/mol
   Vibrational Enthalpy:         42.695 kcal/mol
   gas constant (RT):             0.592 kcal/mol
   Translational Entropy:        37.991  cal/mol.K
   Rotational Entropy:           23.312  cal/mol.K
   Vibrational Entropy:           4.484  cal/mol.K

   Total Enthalpy:               45.065 kcal/mol
   Total Entropy:                65.787  cal/mol.K

 Total job time:  12.53s(wall), 12.41s(cpu)
        *  Thank you very much for using Q-Chem.  Have a nice day.  *
