 Q-Chem 6.0 (devel), Q-Chem, Inc., Pleasanton, CA (2022)
 Q-Chem 6.0.0 for Mac (Intel) OS X

User input:
--------------------------------------------------------------
$molecule
0 1
C      0.0000000000    1.1875260400   -0.9222574453
H      0.0000000000    2.1040448420   -0.3278874451
H      0.8829100000    1.1527498559   -1.5686567469
H     -0.8829100000    1.1527498559   -1.5686567469
C      0.0000000000    0.0000000000    0.0000000000
O      0.0000000000   -0.0000000000    1.1898062021
Cl     0.0000000000   -1.5820990033   -0.9145005744
$end

$rem
JOBTYPE  SP
METHOD  B3LYP
BASIS  6-31G(D)
SYMMETRY  FALSE
SYM_IGNORE  TRUE
SCF_CONVERGENCE  8
ESP_GRID  -1
MAKE_CUBE_FILES   TRUE
GUI  2
$end

$plots
plot the ESP
100  -4.0  4.0
100  -5.0  5.0
100  -5.0  5.0
0 0 0 0
0
$end
--------------------------------------------------------------

             Standard Nuclear Orientation (Angstroms)
    I     Atom           X                Y                Z
 ----------------------------------------------------------------
    1      C       0.0000000000     1.1875260400    -0.9222574453
    2      H       0.0000000000     2.1040448420    -0.3278874451
    3      H       0.8829100000     1.1527498559    -1.5686567469
    4      H      -0.8829100000     1.1527498559    -1.5686567469
    5      C       0.0000000000     0.0000000000     0.0000000000
    6      O       0.0000000000    -0.0000000000     1.1898062021
    7      Cl      0.0000000000    -1.5820990033    -0.9145005744
 ----------------------------------------------------------------

   13    -613.4459185098      5.02e-09  Convergence criterion met
 Total energy in the final basis set =     -613.4459185098

                    Orbital Energies (a.u.)
 --------------------------------------------------------------

 Alpha MOs
 -- Occupied --
******** -19.1908 -10.3490 -10.2272  -9.4637  -7.2265  -7.2188  -7.2174
 -1.0987  -0.8495  -0.7693  -0.5666  -0.4960  -0.4805  -0.4768  -0.4248
 -0.4050  -0.3244  -0.3217  -0.2993

          Ground-State Mulliken Net Atomic Charges

     Atom                 Charge (a.u.)
  ----------------------------------------
      1 C                    -0.507249
      2 H                     0.197084
      3 H                     0.204454
      4 H                     0.204454
      5 C                     0.316215
      6 O                    -0.332224
      7 Cl                   -0.082733
  ----------------------------------------
  Sum of atomic charges =     0.000000

                    Cartesian Multipole Moments
 -----------------------------------------------------------------
    Charge (ESU x 10^10)
                 0.0000
    Dipole Moment (Debye)
         X       0.0000      Y       2.3043      Z      -1.7208
       Tot       2.8759
    Quadrupole Moments (Debye-Ang)
        XX     -29.1901     XY       0.0000     YY     -30.1171
        XZ      -0.0000     YZ      -1.7516     ZZ     -31.7416

 Total job time:  10.61s(wall), 11.13s(cpu)
        *  Thank you very much for using Q-Chem.  Have a nice day.  *
