User input:
--------------------------------------------------------------
$molecule
0 1
  H   -1.707068    0.203401    0.880805
  C   -1.161006   -0.159478    0.000000
  H   -1.135363   -1.251590    0.000000
  H   -1.707068    0.203401   -0.880805
  C    0.238998    0.401892    0.000000
  H    0.296098    1.514745    0.000000
  O    1.249192   -0.265033    0.000000
$end

$rem
   BASIS  =  6-31G*
   EXCHANGE  =  B3LYP
   GUI  =  2
   JOB_TYPE  =  Frequency
$end

--------------------------------------------------------------

       Standard Nuclear Orientation (Angstroms)
    I     Atom         X            Y            Z
 ----------------------------------------------------
    1      H      -1.713730     0.219516     0.880805
    2      C      -1.171140    -0.148534     0.000000
    3      H      -1.155873    -1.240840    -0.000000
    4      H      -1.713730     0.219516    -0.880805
    5      C       0.234133     0.399512     0.000000
    6      H       0.301802     1.511772     0.000000
    7      O       1.237946    -0.276979    -0.000000
 ----------------------------------------------------

   12    -153.8301110890      3.76E-09  00000 Convergence criterion met
 Total energy in the final basis set = -153.8301110890

             Orbital Energies (a.u.) and Symmetries
 --------------------------------------------------------------

 Alpha MOs, Restricted
 -- Occupied --
-19.151 -10.282 -10.198  -1.046  -0.754  -0.581  -0.477  -0.445
  1 A'    2 A'    3 A'    4 A'    5 A'    6 A'    7 A'    1 A"
 -0.434  -0.399  -0.364  -0.255
  8 A'    9 A'    2 A"   10 A'

 Beta MOs, Restricted
 -- Occupied --
-19.151 -10.282 -10.198  -1.046  -0.754  -0.581  -0.477  -0.445
  1 A'    2 A'    3 A'    4 A'    5 A'    6 A'    7 A'    1 A"
 -0.434  -0.399  -0.364  -0.255
  8 A'    9 A'    2 A"   10 A'

          Ground-State Mulliken Net Atomic Charges

     Atom                 Charge (a.u.)
  ----------------------------------------
      1 H                     0.173360
      2 C                    -0.517295
      3 H                     0.182131
      4 H                     0.173360
      5 C                     0.260958
      6 H                     0.101768
      7 O                    -0.374281
  ----------------------------------------
  Sum of atomic charges =    -0.000000

                    Cartesian Multipole Moments
 -----------------------------------------------------------------
    Charge (ESU x 10^10)
                -0.0000
    Dipole Moment (Debye)
         X      -2.4196      Y       1.0575      Z       0.0000
       Tot       2.6406
    Quadrupole Moments (Debye-Ang)
        XX     -20.5096     XY       0.8223     YY     -17.8006
        XZ       0.0000     YZ      -0.0000     ZZ     -17.6010
    Octapole Moments (Debye-Ang^2)
       XXX      -0.3926    XXY       0.7454    XYY       1.0400
       YYY      -1.2286    XXZ       0.0000    XYZ       0.0000
       YYZ       0.0000    XZZ       0.8569    YZZ       0.0305
       ZZZ       0.0000
    Hexadecapole Moments (Debye-Ang^3)
      XXXX    -147.9162   XXXY      -2.0399   XXYY     -31.0542
      XYYY       0.3820   YYYY     -41.0110   XXXZ       0.0000
      XXYZ      -0.0000   XYYZ      -0.0000   YYYZ      -0.0000
      XXZZ     -25.4303   XYZZ      -1.2362   YYZZ     -11.1743

 Frequency:       151.64                 505.89                 778.03
 Force Cnst:      0.0168                 0.3835                 0.4013
 Red. Mass:       1.2403                 2.5435                 1.1251
 IR Intens:        0.278                 12.882                  0.658
 Frequency:       892.35                1136.34                1144.58
 Force Cnst:      1.0189                 1.5838                 1.3601
 Red. Mass:       2.1718                 2.0817                 1.7621
 IR Intens:        8.139                 24.853                  1.486
 Frequency:      1401.08                1448.10                1489.97
 Force Cnst:      1.4536                 1.4892                 1.3792
 Red. Mass:       1.2568                 1.2053                 1.0544
 IR Intens:       19.078                 11.677                 17.042
 Frequency:      1499.59                1842.67                2899.78
 Force Cnst:      1.3882                17.9985                 5.3688
 Red. Mass:       1.0478                 8.9969                 1.0837
 IR Intens:        9.339                156.812                138.480
 Frequency:      3043.48                3100.08                3163.28
 Force Cnst:      5.6631                 6.2237                 6.4988
 Red. Mass:       1.0377                 1.0991                 1.1023
 IR Intens:        2.576                  9.291                 10.507

 STANDARD THERMODYNAMIC QUANTITIES FOR ANHARMONIC VIBRATION -- VPT2

   Zero point vibrational energy: ************ kcal/mol

   Vibrational Enthalpy:            NaN kcal/mol
   Vibrational Entropy:             NaN  cal/mol.K

   Total Enthalpy:                  NaN kcal/mol
   Total Entropy:                   NaN  cal/mol.K

 Total job time:  217.88s(wall), 212.79s(cpu)
        *  Thank you very much for using Q-Chem.  Have a nice day.  *
