 Q-Chem 5.0, Q-Chem, Inc., Pleasanton, CA (2017)
 Q-Chem 5.0.2 for Intel X86 EM64T Linux

User input:
--------------------------------------------------------------
$molecule
1 1
  Ca    0.0000000    0.0000000   -0.6744107
  O    0.0000000    0.0000000    1.3929626
  H    0.0000000    0.0000000    2.3445138
$end

$rem
   BASIS  =  cc-pVDZ
   CC_DO_DYSON  =  1
   CC_EOM_PROPERTIES  =  0
   EOM_EA_BETA  =  [2,2,2,0]
   GUI  =  2
   METHOD  =  EOM-CCSD
   PRINT_GENERAL_BASIS  =  1
$end

--------------------------------------------------------------

             Standard Nuclear Orientation (Angstroms)
    I     Atom           X                Y                Z
 ----------------------------------------------------------------
    1      Ca      0.0000000000     0.0000000000    -0.6744107207
    2      O       0.0000000000     0.0000000000     1.3929625793
    3      H       0.0000000000     0.0000000000     2.3445137793
 ----------------------------------------------------------------

   12    -752.0547986390      9.77e-10  Convergence criterion met
 Total energy in the final basis set =     -752.0547986390
 CCSD total energy           = -752.26760999
        Solving for EOMEA-CCSD/MP2 A1 transitions.
 EOMEA transition 1/A1
 Total energy = -752.46439619 a.u.  Excitation energy = -5.3548 eV.
 EOMEA transition 2/A1
 Total energy = -752.37897622 a.u.  Excitation energy = -3.0304 eV.
        Solving for EOMEA-CCSD/MP2 A2 transitions.
 EOMEA transition 1/A2
 Total energy = -752.34836542 a.u.  Excitation energy = -2.1975 eV.
 EOMEA transition 2/A2
 Total energy = -752.20074146 a.u.  Excitation energy = 1.8196 eV.
        Solving for EOMEA-CCSD/MP2 B1 transitions.
 EOMEA transition 1/B1
 Total energy = -752.39377083 a.u.  Excitation energy = -3.4330 eV.
 EOMEA transition 2/B1
 Total energy = -752.29614248 a.u.  Excitation energy = -0.7764 eV.
 EOM-EA-CCSD state  1/A1 -- Reference  transition
 EOM-EA-CCSD state  2/A1 -- Reference  transition
 EOM-EA-CCSD state  1/A2 -- Reference  transition
 EOM-EA-CCSD state  2/A2 -- Reference  transition
 EOM-EA-CCSD state  1/B1 -- Reference  transition
 EOM-EA-CCSD state  2/B1 -- Reference  transition

             Orbital Energies (a.u.) and Symmetries
 --------------------------------------------------------------

 Alpha MOs, Restricted
 -- Occupied --
-149.58  -20.64  -17.03  -13.84  -13.84  -13.84   -2.45   -1.56
  1 A1    2 A1    3 A1    1 B1    1 B2    4 A1    5 A1    6 A1
 -1.557  -1.557  -1.357  -0.742  -0.572  -0.572
  2 B1    2 B2    7 A1    8 A1    3 B1    3 B2

 Beta MOs, Restricted
 -- Occupied --
-149.58  -20.64  -17.03  -13.84  -13.84  -13.84   -2.45   -1.56
  1 A1    2 A1    3 A1    1 B1    1 B2    4 A1    5 A1    6 A1
 -1.557  -1.557  -1.357  -0.742  -0.572  -0.572
  2 B1    2 B2    7 A1    8 A1    3 B1    3 B2

          Ground-State Mulliken Net Atomic Charges

     Atom                 Charge (a.u.)
  ----------------------------------------
      1 Ca                    1.498780
      2 O                    -0.712940
      3 H                     0.214161
  ----------------------------------------
  Sum of atomic charges =     1.000000

                    Cartesian Multipole Moments
 -----------------------------------------------------------------
    Charge (ESU x 10^10)
                 4.8032
    Dipole Moment (Debye)
         X       0.0000      Y      -0.0000      Z      -8.2205
       Tot       8.2205
    Quadrupole Moments (Debye-Ang)
        XX     -15.7896     XY      -0.0000     YY     -15.7896
        XZ       0.0000     YZ      -0.0000     ZZ      -9.1029

 Total job time:  29.31s(wall), 29.35s(cpu)
        *  Thank you very much for using Q-Chem.  Have a nice day.  *
