 Q-Chem 5.2, Q-Chem, Inc., Pleasanton, CA (2019)
 Q-Chem 5.2.2 for Intel X86 EM64T Linux

User input:
--------------------------------------------------------------
$molecule
1 1
C   -3.4114700    2.6104200   -0.0157200
C   -2.1174800    3.2029600   -0.0080200
C   -0.9521400    2.4276800   -0.0215300
C   -3.4617900    1.1893800   -0.0368500
C   -2.3015900    0.4132900   -0.0496800
C   -1.0453200    1.0194000   -0.0425600
O    0.2352000    3.0324800   -0.0152300
C    1.3808400    2.3600600   -0.0286300
C    1.3606200    0.8915700   -0.0505000
C    0.1240000    0.2497100   -0.0566200
C    2.6036900    3.0309900   -0.0234200
C    3.8573500    2.3323000   -0.0392900
C    2.5637800    0.2024300   -0.0649200
C    3.7757100    0.8978500   -0.0596600
N   -4.6285600    3.4197800   -0.0032800
N    5.0270900    2.9744200   -0.0359100
C   -4.4404100    4.8892200    0.0256700
C   -5.6320200    5.8434800    0.0481300
C   -5.9107600    2.6765600   -0.0218000
C   -7.2540100    3.4022000   -0.0204400
C    4.9906600    4.4640000   -0.0136900
C    6.2619500    5.3107600   -0.0060000
C    6.2642000    2.1432400   -0.0553200
C    7.6626200    2.7577100   -0.0577900
H   -1.9766800    4.2731300    0.0075500
H   -4.3921100    0.6428600   -0.0440100
H   -2.3900400   -0.6668700   -0.0658600
H    0.0705500   -0.8334200   -0.0729700
H    2.5288700    4.1077300   -0.0075300
H    2.5727700   -0.8812900   -0.0810500
H    4.6457100    0.2599100   -0.0725800
H   -3.8537900    5.1777900   -0.8741800
H   -3.8526500    5.1407300    0.9359400
H   -6.2333200    5.7731600   -0.8767900
H   -5.2418500    6.8835500    0.0703800
H   -6.2299500    5.7315700    0.9713800
H   -5.9370300    2.0159200    0.8726900
H   -5.9265300    2.0455000   -0.9377400
H   -7.4121200    3.9750400    0.9116200
H   -8.0596100    2.6371000   -0.0389300
H   -7.3964600    4.0040200   -0.9369200
H    4.4434100    4.7822900    0.9021200
H    4.4350700    4.8095700   -0.9144400
H    6.8539100    5.1591400    0.9150700
H    5.9628800    6.3808400    0.0118600
H    6.8463300    5.1882600   -0.9361200
H    6.2416200    1.5126700   -0.9726500
H    6.2538200    1.4874400    0.8443300
H    7.8571900    3.3390900   -0.9775200
H    8.4023500    1.9284900   -0.0749100
H    7.8722900    3.3141300    0.8738400
$end

$rem
BASIS  =  6-31+G*
CIS_N_ROOTS  =  4
CIS_TRIPLETS  =  0
EXCHANGE  =  B3LYP
GUI  =  2
JOB_TYPE  =  SP
SCF_CONVERGENCE  =  8
SCF_MAX_CYCLES  =  200
SOLVENT_METHOD  =  COSMO
$end

$solvent
DIELECTRIC  78.39
$end

--------------------------------------------------------------

             Standard Nuclear Orientation (Angstroms)
    I     Atom           X                Y                Z
 ----------------------------------------------------------------
    1      C       3.6137066306    -0.2438673465    -0.0019354197
    2      C       2.3476222463     0.4062075429    -0.0043913562
    3      C       1.1486501855    -0.3160971674    -0.0052951884
    4      C       3.6001818767    -1.6658905899    -0.0014482565
    5      C       2.4063105350    -2.3892252659    -0.0030302744
    6      C       1.1785146138    -1.7272970029    -0.0046082428
    7      O      -0.0103468988     0.3414166423    -0.0058902790
    8      C      -1.1850259322    -0.2790252171    -0.0053483925
    9      C      -1.2307504995    -1.7471052841    -0.0048944848
   10      C      -0.0241845596    -2.4438472528    -0.0048909338
   11      C      -2.3765352010     0.4461231286    -0.0039807030
   12      C      -3.6603111573    -0.1957466220    -0.0016385142
   13      C      -2.4636444994    -2.3816814330    -0.0037291043
   14      C      -3.6431464337    -1.6325597804    -0.0020245511
   15      N       4.8659010874     0.5101410544     0.0006732200
   16      N      -4.8000621099     0.4982133521     0.0012781356
   17      C       4.7439314320     1.9868104262    -0.0072897033
   18      C       5.9772024836     2.8868464155    -0.0126490593
   19      C       6.1134147411    -0.2900736553     0.0117140989
   20      C       7.4878507996     0.3744845307     0.0245109810
   21      C      -4.6967979386     1.9848221913     0.0009322441
   22      C      -5.9288052319     2.8878150802     0.0022625935
   23      C      -6.0732577692    -0.2767930969     0.0052668569
   24      C      -7.4427166306     0.3997275788     0.0130244692
   25      H       2.2550059951     1.4817320830    -0.0046873768
   26      H       4.5050295503    -2.2536649648     0.0001796373
   27      H       2.4461797377    -3.4723877102    -0.0024086726
   28      H      -0.0194137027    -3.5284078232    -0.0042352405
   29      H      -2.2534538559     1.5185365434    -0.0039309597
   30      H      -2.5212762229    -3.4640254407    -0.0034669831
   31      H      -4.5409164695    -2.2309256031    -0.0007303035
   32      H       4.1678799078     2.2883561170     0.8951295615
   33      H       4.1710440776     2.2776085229    -0.9153354712
   34      H       6.5716930385     2.7762166932     0.9127295894
   35      H       5.6341406736     3.9435945874    -0.0207232146
   36      H       6.5725517099     2.7615954006    -0.9358533582
   37      H       6.1129804687    -0.9382006917    -0.8922653471
   38      H       6.0978516217    -0.9344067833     0.9183695514
   39      H       7.6745603951     0.9530910735    -0.8986543763
   40      H       8.2582654148    -0.4261924402     0.0339427956
   41      H       7.6541242765     0.9559652327     0.9500639127
   42      H      -4.1328103514     2.2914594752    -0.9086779033
   43      H      -4.1292415933     2.2920214854     0.9081024730
   44      H      -6.5239304589     2.7762767979    -0.9224862301
   45      H      -5.5819928595     3.9435386230     0.0008376814
   46      H      -6.5211525371     2.7782092509     0.9289452150
   47      H      -6.0820003835    -0.9209625824     0.9133373116
   48      H      -6.0893319246    -0.9192975281    -0.9038432489
   49      H      -7.6140495983     0.9758716340     0.9406378068
   50      H      -8.2189399033    -0.3956135772     0.0160662129
   51      H      -7.6241528058     0.9784345610    -0.9109226750
 ----------------------------------------------------------------

   15   -1001.0038713706      8.99e-09  Convergence criterion met
 Total energy in the final basis set =    -1001.0038713706
   11   -1001.0641714099      5.06e-09  Convergence criterion met
 Total energy in the final basis set =    -1001.0596298920

         TDDFT/TDA Excitation Energies
 ---------------------------------------------------

 Excited state   1: excitation energy (eV) =    2.8907
 Total energy for state  1:                 -1000.95339776 au
    Multiplicity: Singlet
    Trans. Mom.:  4.0157 X   0.1625 Y   0.0006 Z
    Strength   :     1.1439331023
    D(   87) --> V(    1) amplitude =  0.9483

 Excited state   2: excitation energy (eV) =    3.1317
 Total energy for state  2:                 -1000.94454043 au
    Multiplicity: Singlet
    Trans. Mom.: -1.0635 X   0.0536 Y   0.0016 Z
    Strength   :     0.0869982155
    D(   85) --> V(    1) amplitude =  0.4010
    D(   86) --> V(    1) amplitude =  0.8797

 Excited state   3: excitation energy (eV) =    3.7496
 Total energy for state  3:                 -1000.92183583 au
    Multiplicity: Singlet
    Trans. Mom.:  0.7393 X  -0.6569 Y  -0.0019 Z
    Strength   :     0.0898427360
    D(   85) --> V(    1) amplitude =  0.8152
    D(   86) --> V(    1) amplitude = -0.3436
    D(   87) --> V(    2) amplitude =  0.3716

 Excited state   4: excitation energy (eV) =    4.1455
 Total energy for state  4:                 -1000.90728687 au
    Multiplicity: Singlet
    Trans. Mom.:  0.3269 X  -0.1017 Y  -0.0002 Z
    Strength   :     0.0119029610
    D(   84) --> V(    1) amplitude =  0.9537
    D(   87) --> V(    3) amplitude = -0.2267

 ---------------------------------------------------

                    Orbital Energies (a.u.)
 --------------------------------------------------------------

 Alpha MOs
 -- Occupied --
-19.2586 -14.3969 -14.3832 -10.2998 -10.2952 -10.2729 -10.2717 -10.2447
-10.2364 -10.2362 -10.2307 -10.2305 -10.2286 -10.2253 -10.2224 -10.2212
-10.2132 -10.2132 -10.2122 -10.2122 -10.1883 -10.1882 -10.1862 -10.1862
 -1.1646  -0.9828  -0.9460  -0.8914  -0.8848  -0.8234  -0.8072  -0.7849
 -0.7800  -0.7732  -0.7583  -0.7525  -0.7332  -0.6883  -0.6826  -0.6611
 -0.6488  -0.6380  -0.6244  -0.6063  -0.5970  -0.5661  -0.5601  -0.5415
 -0.5209  -0.5134  -0.5075  -0.5056  -0.4974  -0.4881  -0.4846  -0.4803
 -0.4625  -0.4559  -0.4540  -0.4493  -0.4489  -0.4423  -0.4350  -0.4175
 -0.4071  -0.4053  -0.4048  -0.3962  -0.3894  -0.3887  -0.3857  -0.3837
 -0.3817  -0.3802  -0.3720  -0.3687  -0.3569  -0.3542  -0.3509  -0.3387
 -0.3292  -0.3289  -0.3074  -0.2879  -0.2584  -0.2397  -0.2130

          Ground-State Mulliken Net Atomic Charges

     Atom                 Charge (a.u.)
  ----------------------------------------
      1 C                     1.102997
      2 C                    -0.627993
      3 C                    -0.656345
      4 C                    -0.399349
      5 C                    -0.445556
      6 C                     0.779266
      7 O                    -0.376074
      8 C                    -0.618300
      9 C                     0.806327
     10 C                     0.221345
     11 C                    -0.648692
     12 C                     1.008913
     13 C                    -0.289272
     14 C                    -0.332232
     15 N                    -0.261510
     16 N                    -0.224876
     17 C                     0.017984
     18 C                    -1.037400
     19 C                     0.071470
     20 C                    -1.103990
     21 C                    -0.040542
     22 C                    -1.024585
     23 C                     0.000206
     24 C                    -1.092434
     25 H                     0.229988
     26 H                     0.226407
     27 H                     0.243457
     28 H                     0.260868
     29 H                     0.231101
     30 H                     0.245563
     31 H                     0.226205
     32 H                     0.224663
     33 H                     0.224704
     34 H                     0.219965
     35 H                     0.222504
     36 H                     0.220103
     37 H                     0.224014
     38 H                     0.223961
     39 H                     0.219529
     40 H                     0.222163
     41 H                     0.219602
     42 H                     0.236661
     43 H                     0.236701
     44 H                     0.222624
     45 H                     0.226101
     46 H                     0.222649
     47 H                     0.235494
     48 H                     0.235639
     49 H                     0.222126
     50 H                     0.225696
     51 H                     0.222156
  ----------------------------------------
  Sum of atomic charges =     1.000000

                    Cartesian Multipole Moments
 -----------------------------------------------------------------
    Charge (ESU x 10^10)
                 4.8032
    Dipole Moment (Debye)
         X      -2.5118      Y      -1.7206      Z       0.0101
       Tot       3.0446
    Quadrupole Moments (Debye-Ang)
        XX     -26.5421     XY      -1.4770     YY    -110.9874
        XZ      -0.0005     YZ      -0.0116     ZZ    -147.3106

 Total job time:  729.96s(wall), 5755.05s(cpu)
        *  Thank you very much for using Q-Chem.  Have a nice day.  *
