User input:
--------------------------------------------------------------
$molecule
0 1
  H    0.575608   -1.045799    0.685458
  C    0.753125   -0.356934   -0.181107
  N    2.186096   -0.483524   -0.533363
  H    2.395201    0.067622   -1.339852
  H    2.403001   -1.439655   -0.716692
  C    0.439075    1.081207    0.243268
  H    0.864403    1.803975   -0.479464
  C   -0.184333   -0.759649   -1.325993
  O   -0.264217   -0.248260   -2.422658
  O   -1.046577   -1.792047   -1.208329
  H   -0.986100   -2.184836   -0.346108
  S    0.933706    1.495465    1.940948
  H   -0.656031    1.254593    0.228466
  H    1.451858    0.357619    2.331329
$end

$rem
   BASIS  =  6-31G
   EXCHANGE  =  B3LYP
   GUI  =  2
   JOB_TYPE  =  Optimization
$end

--------------------------------------------------------------

   14    -721.7499458219      5.19E-09  00000 Convergence criterion met
 Total energy in the final basis set = -721.7499458219
   12    -721.7665512714      8.05E-09  00000 Convergence criterion met
 Total energy in the final basis set = -721.7665512714
   12    -721.7694978385      6.02E-09  00000 Convergence criterion met
 Total energy in the final basis set = -721.7694978385
   12    -721.7718752074      4.19E-09  00000 Convergence criterion met
 Total energy in the final basis set = -721.7718752074
   12    -721.7740771910      4.07E-09  00000 Convergence criterion met
 Total energy in the final basis set = -721.7740771910
   12    -721.7757596374      3.99E-09  00000 Convergence criterion met
 Total energy in the final basis set = -721.7757596374
   12    -721.7765893535      2.36E-09  00000 Convergence criterion met
 Total energy in the final basis set = -721.7765893535
   12    -721.7771997122      5.97E-09  00000 Convergence criterion met
   12    -721.7787832673      5.16E-09  00000 Convergence criterion met
 Total energy in the final basis set = -721.7787832673
   12    -721.7791154230      5.69E-09  00000 Convergence criterion met
 Total energy in the final basis set = -721.7791154230
   11    -721.7792194480      8.45E-09  00000 Convergence criterion met
 Total energy in the final basis set = -721.7792194480
   11    -721.7792303603      3.98E-09  00000 Convergence criterion met
 Total energy in the final basis set = -721.7792303603
   11    -721.7792376807      1.64E-09  00000 Convergence criterion met
 Total energy in the final basis set = -721.7792376807
   10    -721.7792406363      5.87E-09  00000 Convergence criterion met
 Total energy in the final basis set = -721.7792406363

       Standard Nuclear Orientation (Angstroms)
    I     Atom         X            Y            Z
 ----------------------------------------------------
    1      H       0.188516    -0.046667    -1.502188
    2      C       0.262364    -0.315856    -0.440891
    3      N      -0.097228    -1.718423    -0.301398
    4      H       0.207445    -2.119697     0.581284
    5      H       0.173052    -2.303571    -1.082959
    6      C      -0.722590     0.575454     0.354321
    7      H      -0.693377     0.310405     1.414470
    8      C       1.695449    -0.030274     0.047576
    9      O       2.343352    -0.799451     0.748389
   10      O       2.230171     1.195385    -0.306454
   11      H       1.650639     1.722367    -0.893724
   12      S      -2.491791     0.369845    -0.285122
   13      H      -0.487322     1.637765     0.254331
   14      H      -2.357485    -1.004024    -0.372520
 ----------------------------------------------------

    9    -721.7792413729      7.77E-09  00000 Convergence criterion met
 Total energy in the final basis set = -721.7792413729
 Final energy is   -721.77924137289153
 **  OPTIMIZATION CONVERGED  **

                    Orbital Energies (a.u.)
 --------------------------------------------------------------

 Alpha MOs
 -- Occupied --
-88.860 -19.211 -19.163 -14.340 -10.345 -10.267 -10.242  -7.940
 -5.904  -5.900  -5.892  -1.125  -1.051  -0.926  -0.804  -0.730
 -0.651  -0.630  -0.561  -0.537  -0.484  -0.467  -0.451  -0.433
 -0.402  -0.397  -0.390  -0.340  -0.331  -0.293  -0.261  -0.243

          Ground-State Mulliken Net Atomic Charges

     Atom                 Charge (a.u.)
  ----------------------------------------
      1 H                     0.170481
      2 C                    -0.096965
      3 N                    -0.664623
      4 H                     0.309574
      5 H                     0.303303
      6 C                    -0.454790
      7 H                     0.192921
      8 C                     0.518087
      9 O                    -0.387004
     10 O                    -0.544843
     11 H                     0.384719
     12 S                     0.008059
     13 H                     0.167418
     14 H                     0.093663
  ----------------------------------------
  Sum of atomic charges =    -0.000000

                    Cartesian Multipole Moments
 -----------------------------------------------------------------
    Charge (ESU x 10^10)
                -0.0000
    Dipole Moment (Debye)
         X      -0.4746      Y      -0.0946      Z      -2.0844
       Tot       2.1399
    Quadrupole Moments (Debye-Ang)
        XX     -69.1312     XY       3.4460     YY     -43.9596
        XZ      -5.7627     YZ       0.5707     ZZ     -47.4719
    Octapole Moments (Debye-Ang^2)
       XXX      -9.8180    XXY      -6.1607    XYY       4.8816
       YYY       3.5126    XXZ      -6.6663    XYZ      -1.0504
       YYZ      -3.0312    XZZ       7.2057    YZZ       0.5646
       ZZZ      10.3993
    Hexadecapole Moments (Debye-Ang^3)
      XXXX   -1177.8046   XXXY      49.9414   XXYY    -236.1922
      XYYY      19.7298   YYYY    -247.9379   XXXZ     -49.3521
      XXYZ      10.3306   XYYZ     -24.5160   YYYZ       1.6667
      XXZZ    -203.1663   XYZZ      15.5703   YYZZ     -56.8031

 Total job time:  918.10s(wall), 896.79s(cpu)
        *  Thank you very much for using Q-Chem.  Have a nice day.  *
