 Q-Chem 6.0, Q-Chem, Inc., Pleasanton, CA (2022)
 Q-Chem 6.0.0 for Intel X86 EM64T Linux

User input:
--------------------------------------------------------------
$molecule
0 1
O    1.3028342    0.1351160    0.4886373
C    0.2403005    0.5689240    0.0740547
C   -0.9417551   -0.3347667   -0.0510221
H    0.1582101    1.6147765   -0.2034503
H   -0.7070995   -1.1646542   -0.7500594
H   -1.8106907    0.2345291   -0.4423010
H   -1.2005989   -0.7535979    0.9439697
****
O    0.8115782   -0.5556819   -0.4552501
C   -0.1190388    0.3952200   -0.2180853
C   -1.3126225    0.0870782    0.2964189
H    0.1113971    1.4296267   -0.4516525
H    0.6561146   -1.4922523   -0.2650153
H   -2.0439660    0.8679581    0.4781221
H   -1.5667356   -0.9402313    0.5384077
$end

$rem
BASIS  =  6-31G
GUI  =  2
JOB_TYPE  =  FSM
METHOD  =  HF
$end

--------------------------------------------------------------

   13    -152.8392947192      2.25e-09  Convergence criterion met
 Total energy in the final basis set =     -152.8392947192
   13    -152.8213551030      2.87e-09  Convergence criterion met
 Total energy in the final basis set =     -152.8213551030
   14    -152.8239709952      5.66e-09  Convergence criterion met
 Total energy in the final basis set =     -152.8239709952
   14    -152.8289075990      3.71e-09  Convergence criterion met
 Total energy in the final basis set =     -152.8289075990
   13    -152.8049667368      6.47e-09  Convergence criterion met
 Total energy in the final basis set =     -152.8049667368
   13    -152.8166996000      4.18e-09  Convergence criterion met
 Total energy in the final basis set =     -152.8166996000
   14    -152.7999772990      7.35e-09  Convergence criterion met
 Total energy in the final basis set =     -152.7999772990
   14    -152.8088701319      8.48e-09  Convergence criterion met
 Total energy in the final basis set =     -152.6946989002
   15    -152.6930861364      7.24e-09  Convergence criterion met
 Total energy in the final basis set =     -152.6930861364
   15    -152.6947464101      6.76e-09  Convergence criterion met
 Total energy in the final basis set =     -152.6947464101
   15    -152.6930433512      7.27e-09  Convergence criterion met
 Total energy in the final basis set =     -152.6930433512
   15    -152.6947798174      6.74e-09  Convergence criterion met
 Total energy in the final basis set =     -152.6947798174
   15    -152.6930136233      7.29e-09  Convergence criterion met
 Total energy in the final basis set =     -152.6930136233
   15    -152.6948155878      6.74e-09  Convergence criterion met
 Total energy in the final basis set =     -152.6948155878
   15    -152.6929835157      7.30e-09  Convergence criterion met
 Total energy in the final basis set =     -152.6929835157

                    Orbital Energies (a.u.)
 --------------------------------------------------------------

 Alpha MOs
 -- Occupied --
-20.5907 -11.3600 -11.2200  -1.4179  -1.0264  -0.8297  -0.7063  -0.6299
 -0.5824  -0.5604  -0.4750  -0.3502

          Ground-State Mulliken Net Atomic Charges

     Atom                 Charge (a.u.)
  ----------------------------------------
      1 O                    -0.698776
      2 C                     0.352456
      3 C                    -0.725292
      4 H                     0.219760
      5 H                     0.445125
      6 H                     0.173869
      7 H                     0.232859
  ----------------------------------------
  Sum of atomic charges =     0.000000

                    Cartesian Multipole Moments
 -----------------------------------------------------------------
    Charge (ESU x 10^10)
                 0.0000
    Dipole Moment (Debye)
         X      -1.9601      Y       1.0521      Z       0.1259
       Tot       2.2282
    Quadrupole Moments (Debye-Ang)
        XX     -23.1902     XY       1.1540     YY     -15.8435
        XZ      -1.0379     YZ      -0.7011     ZZ     -19.7624

             Standard Nuclear Orientation (Angstroms)
    I     Atom           X                Y                Z
 ----------------------------------------------------------------
    1      O       1.0971075294    -0.2834189551     0.0277621238
    2      C       0.0495822346     0.5339615481     0.0046510093
    3      C      -1.1854775520    -0.0817002250    -0.0273780771
    4      H       0.2212905733     1.5818481333    -0.1314533808
    5      H       0.3595120748    -1.2002295312    -0.2833404007
    6      H      -2.0608466835     0.4730044270    -0.3130244294
    7      H      -1.4216780818    -0.8344607341     0.7159950939
 ----------------------------------------------------------------

 Total job time:  26.10s(wall), 26.12s(cpu)
        *  Thank you very much for using Q-Chem.  Have a nice day.  *
